LAMMPS data file. CGCMM style. atom_style atomic generated by VMD/TopoTools v1.2 on Fri Jun 20 11:27:29 +0800 2025
 2176 atoms
 0 bonds
 0 angles
 0 dihedrals
 0 impropers
 5 atom types
 0 bond types
 0 angle types
 0 dihedral types
 0 improper types
 0.0 38.981  xlo xhi
 0.0 22.506  ylo yhi
 0.0 30.000  zlo zhi

# Pair Coeffs
#
# 1  1
# 2  2
# 3  3
# 4  4
# 5  5

 Masses

 1 15.999400 # 1
 2 14.006700 # 2
 3 12.010700 # 3
 4 1.007940 # 4
 5 195.078003 # 5

 Atoms

1 1 14.271000 20.080000 1.435000 # 1
2 1 14.271000 20.080000 4.702000 # 1
3 1 14.271000 20.080000 7.968000 # 1
4 1 33.762001 8.827000 1.435000 # 1
5 1 33.762001 8.827000 4.702000 # 1
6 1 33.762001 8.827000 7.968000 # 1
7 1 5.196000 13.689000 1.433000 # 1
8 1 5.196000 13.689000 4.699000 # 1
9 1 5.196000 13.689000 7.966000 # 1
10 1 24.687002 2.436000 1.433000 # 1
11 1 24.687002 2.436000 4.699000 # 1
12 1 24.687002 2.436000 7.966000 # 1
13 1 14.450000 2.338000 1.440000 # 1
14 1 14.450000 2.338000 4.707000 # 1
15 1 14.450000 2.338000 7.973000 # 1
16 1 33.941002 13.591000 1.440000 # 1
17 1 33.941002 13.591000 4.707000 # 1
18 1 33.941002 13.591000 7.973000 # 1
19 1 5.028000 8.924000 1.426000 # 1
20 1 5.028000 8.924000 4.692999 # 1
21 1 5.028000 8.924000 7.959000 # 1
22 1 24.518999 20.177000 1.426000 # 1
23 1 24.518999 20.177000 4.692999 # 1
24 1 24.518999 20.177000 7.959000 # 1
25 1 10.235001 0.113000 1.416000 # 1
26 1 10.235001 0.113000 4.683000 # 1
27 1 10.235001 0.113000 7.948999 # 1
28 1 29.726000 11.366001 1.416000 # 1
29 1 29.726000 11.365999 4.683000 # 1
30 1 29.726000 11.365999 7.948999 # 1
31 1 9.238000 11.164000 1.451000 # 1
32 1 9.238000 11.164000 4.717000 # 1
33 1 9.238000 11.164000 7.984001 # 1
34 1 28.729000 22.417000 1.451000 # 1
35 1 28.729000 22.417000 4.717000 # 1
36 1 28.729000 22.417000 7.984001 # 1
37 2 10.280000 19.649000 1.431000 # 2
38 2 10.280000 19.649000 4.698000 # 2
39 2 10.280000 19.649000 7.964000 # 2
40 2 29.771000 8.396000 1.431000 # 2
41 2 29.771000 8.396000 4.698000 # 2
42 2 29.771000 8.396000 7.964000 # 2
43 2 9.186000 14.124001 1.436000 # 2
44 2 9.186000 14.124001 4.702000 # 2
45 2 9.186000 14.124001 7.969000 # 2
46 2 28.677000 2.871000 1.436000 # 2
47 2 28.677000 2.871000 4.702000 # 2
48 2 28.677000 2.871000 7.969000 # 2
49 2 16.816000 21.600000 1.434000 # 2
50 2 16.816000 21.600000 4.700000 # 2
51 2 16.816000 21.600000 7.967000 # 2
52 2 36.306999 10.347000 1.434000 # 2
53 2 36.306999 10.347000 4.700000 # 2
54 2 36.306999 10.347000 7.967000 # 2
55 2 2.657000 12.164000 1.433000 # 2
56 2 2.657000 12.164000 4.700000 # 2
57 2 2.657000 12.164000 7.966000 # 2
58 2 22.147001 0.911000 1.433000 # 2
59 2 22.147001 0.911000 4.700000 # 2
60 2 22.147001 0.911000 7.966000 # 2
61 2 11.868000 3.784000 1.449000 # 2
62 2 11.868000 3.784000 4.716000 # 2
63 2 11.868000 3.784000 7.981999 # 2
64 2 31.357998 15.037000 1.449000 # 2
65 2 31.357998 15.037000 4.716000 # 2
66 2 31.358000 15.037000 7.981999 # 2
67 2 7.626000 7.489000 1.417000 # 2
68 2 7.626000 7.489000 4.684000 # 2
69 2 7.626000 7.489000 7.950000 # 2
70 2 27.117001 18.742001 1.417000 # 2
71 2 27.117001 18.742001 4.684000 # 2
72 2 27.117001 18.742001 7.950000 # 2
73 3 13.669001 21.236000 1.434000 # 3
74 3 13.668999 21.236000 4.700000 # 3
75 3 13.668999 21.236000 7.967000 # 3
76 3 33.160000 9.983000 1.434000 # 3
77 3 33.160000 9.983000 4.700000 # 3
78 3 33.160000 9.983000 7.967000 # 3
79 3 5.800000 12.533001 1.434000 # 3
80 3 5.800000 12.533001 4.700000 # 3
81 3 5.800000 12.533001 7.967000 # 3
82 3 25.290001 1.280000 1.434000 # 3
83 3 25.290001 1.280000 4.700000 # 3
84 3 25.290001 1.280000 7.967000 # 3
85 3 13.749001 1.238000 1.437000 # 3
86 3 13.749001 1.238000 4.704000 # 3
87 3 13.749001 1.238000 7.969999 # 3
88 3 33.240002 12.491001 1.437000 # 3
89 3 33.240002 12.491001 4.704000 # 3
90 3 33.240002 12.491001 7.969999 # 3
91 3 5.727001 10.025000 1.430000 # 3
92 3 5.727001 10.025000 4.696000 # 3
93 3 5.727001 10.025000 7.963000 # 3
94 3 25.218000 21.278000 1.430000 # 3
95 3 25.218000 21.278000 4.696000 # 3
96 3 25.218000 21.278000 7.963000 # 3
97 3 11.536999 0.054000 1.427000 # 3
98 3 11.536999 0.054000 4.694000 # 3
99 3 11.536999 0.054000 7.960000 # 3
100 3 31.028000 11.307001 1.427000 # 3
101 3 31.028000 11.307001 4.694000 # 3
102 3 31.028000 11.307001 7.960000 # 3
103 3 7.935000 11.217000 1.440000 # 3
104 3 7.935000 11.217000 4.706000 # 3
105 3 7.935000 11.217000 7.973000 # 3
106 3 27.426001 22.469999 1.440000 # 3
107 3 27.426001 22.469999 4.706000 # 3
108 3 27.426001 22.469999 7.973000 # 3
109 3 12.214000 21.285999 1.431000 # 3
110 3 12.214000 21.285999 4.697000 # 3
111 3 12.214000 21.285999 7.964000 # 3
112 3 31.705002 10.033000 1.431000 # 3
113 3 31.705002 10.033000 4.697000 # 3
114 3 31.705002 10.033000 7.964000 # 3
115 3 7.254000 12.487000 1.436000 # 3
116 3 7.254000 12.487000 4.703000 # 3
117 3 7.254000 12.487000 7.969000 # 3
118 3 26.743999 1.234000 1.436000 # 3
119 3 26.743999 1.234000 4.703000 # 3
120 3 26.743999 1.234000 7.969000 # 3
121 3 14.433001 22.459999 1.435000 # 3
122 3 14.433001 22.459999 4.701000 # 3
123 3 14.433001 22.459999 7.968000 # 3
124 3 33.924000 11.207000 1.435000 # 3
125 3 33.924000 11.207000 4.701000 # 3
126 3 33.924000 11.207000 7.968000 # 3
127 3 5.040000 11.308001 1.432000 # 3
128 3 5.040000 11.308001 4.699000 # 3
129 3 5.040000 11.308001 7.965000 # 3
130 3 24.530001 0.055000 1.432000 # 3
131 3 24.530001 0.055000 4.699000 # 3
132 3 24.530001 0.055000 7.965000 # 3
133 3 12.309000 1.288000 1.436000 # 3
134 3 12.309000 1.288000 4.702000 # 3
135 3 12.309000 1.288000 7.969000 # 3
136 3 31.799999 12.541001 1.436000 # 3
137 3 31.799999 12.541001 4.702000 # 3
138 3 31.799999 12.541001 7.969000 # 3
139 3 7.169000 9.980000 1.431000 # 3
140 3 7.169000 9.980000 4.698000 # 3
141 3 7.169000 9.980000 7.964000 # 3
142 3 26.659000 21.233000 1.431000 # 3
143 3 26.659000 21.233000 4.698000 # 3
144 3 26.659000 21.233000 7.964000 # 3
145 3 11.586000 20.000000 1.431000 # 3
146 3 11.586000 20.000000 4.698000 # 3
147 3 11.586000 20.000000 7.964000 # 3
148 3 31.076000 8.747000 1.431000 # 3
149 3 31.076000 8.747000 4.698000 # 3
150 3 31.076000 8.747000 7.964000 # 3
151 3 7.881000 13.774001 1.436000 # 3
152 3 7.881000 13.774001 4.703000 # 3
153 3 7.881000 13.774001 7.969000 # 3
154 3 27.372000 2.521000 1.436000 # 3
155 3 27.372000 2.521000 4.703000 # 3
156 3 27.372000 2.521000 7.969000 # 3
157 3 15.861000 0.051000 1.435000 # 3
158 3 15.861000 0.051000 4.701000 # 3
159 3 15.861000 0.051000 7.968000 # 3
160 3 35.352001 11.304000 1.435000 # 3
161 3 35.352001 11.304000 4.701000 # 3
162 3 35.352001 11.304000 7.968000 # 3
163 3 3.612000 11.208000 1.432000 # 3
164 3 3.612000 11.208000 4.699000 # 3
165 3 3.612000 11.208000 7.965000 # 3
166 3 23.101999 22.461000 1.432000 # 3
167 3 23.101999 22.461000 4.699000 # 3
168 3 23.101999 22.461000 7.965000 # 3
169 3 11.514001 2.479000 1.439000 # 3
170 3 11.514001 2.479000 4.705000 # 3
171 3 11.514001 2.479000 7.972000 # 3
172 3 31.004999 13.732001 1.439000 # 3
173 3 31.004999 13.732001 4.705000 # 3
174 3 31.004999 13.732001 7.972000 # 3
175 3 7.973000 8.796000 1.428000 # 3
176 3 7.973000 8.796000 4.695000 # 3
177 3 7.973000 8.796000 7.960999 # 3
178 3 27.464001 20.049000 1.428000 # 3
179 3 27.464001 20.049000 4.695000 # 3
180 3 27.464001 20.049000 7.960999 # 3
181 3 9.949000 18.260000 1.433000 # 3
182 3 9.949000 18.260000 4.699000 # 3
183 3 9.949000 18.260000 7.966000 # 3
184 3 29.440001 7.007000 1.433000 # 3
185 3 29.440001 7.007000 4.699000 # 3
186 3 29.440001 7.007000 7.966000 # 3
187 3 9.517000 15.512000 1.434000 # 3
188 3 9.517000 15.512000 4.701000 # 3
189 3 9.517000 15.512000 7.967000 # 3
190 3 29.007999 4.259000 1.434000 # 3
191 3 29.007999 4.259000 4.701000 # 3
192 3 29.007999 4.259000 7.967000 # 3
193 3 18.184000 22.007000 1.434000 # 3
194 3 18.184000 22.007000 4.700000 # 3
195 3 18.184000 22.007000 7.967000 # 3
196 3 37.674999 10.754000 1.434000 # 3
197 3 37.674999 10.754000 4.700000 # 3
198 3 37.674999 10.754000 7.967000 # 3
199 3 1.289000 11.757000 1.433000 # 3
200 3 1.289000 11.757000 4.700000 # 3
201 3 1.289000 11.757000 7.966000 # 3
202 3 20.780003 0.504000 1.433000 # 3
203 3 20.780003 0.504000 4.700000 # 3
204 3 20.780003 0.504000 7.966000 # 3
205 3 10.832000 4.767000 1.442000 # 3
206 3 10.832000 4.767000 4.709000 # 3
207 3 10.832000 4.767000 7.975000 # 3
208 3 30.323000 16.020000 1.442000 # 3
209 3 30.323000 16.020000 4.709000 # 3
210 3 30.323000 16.020000 7.975000 # 3
211 3 8.666000 6.512000 1.424000 # 3
212 3 8.666000 6.512000 4.691000 # 3
213 3 8.666000 6.512000 7.957000 # 3
214 3 28.156000 17.764999 1.424000 # 3
215 3 28.156000 17.764999 4.691000 # 3
216 3 28.156000 17.764999 7.957000 # 3
217 3 11.079001 17.400000 1.434000 # 3
218 3 11.079001 17.400000 4.700000 # 3
219 3 11.079001 17.400000 7.967000 # 3
220 3 30.569000 6.147000 1.434000 # 3
221 3 30.569000 6.147000 4.700000 # 3
222 3 30.569000 6.147000 7.967000 # 3
223 3 8.387000 16.372000 1.434000 # 3
224 3 8.387000 16.372000 4.700000 # 3
225 3 8.387000 16.372000 7.967000 # 3
226 3 27.878000 5.119000 1.434000 # 3
227 3 27.878000 5.119000 4.700000 # 3
228 3 27.878000 5.119000 7.967000 # 3
229 3 18.364000 0.909000 1.434000 # 3
230 3 18.364000 0.909000 4.701000 # 3
231 3 18.364000 0.909000 7.967000 # 3
232 3 37.855000 12.162001 1.434000 # 3
233 3 37.855000 12.162001 4.701000 # 3
234 3 37.855000 12.162001 7.967000 # 3
235 3 1.109000 10.349000 1.433000 # 3
236 3 1.109000 10.349000 4.699000 # 3
237 3 1.109000 10.349000 7.966000 # 3
238 3 20.600000 21.601999 1.433000 # 3
239 3 20.600000 21.601999 4.699000 # 3
240 3 20.600000 21.601999 7.966000 # 3
241 3 9.523000 4.218000 1.420000 # 3
242 3 9.523000 4.218000 4.687000 # 3
243 3 9.523000 4.218000 7.953000 # 3
244 3 29.014000 15.471000 1.420000 # 3
245 3 29.014000 15.471000 4.687000 # 3
246 3 29.014000 15.471000 7.953000 # 3
247 3 9.975000 7.061000 1.447000 # 3
248 3 9.975000 7.061000 4.713000 # 3
249 3 9.975000 7.061000 7.980000 # 3
250 3 29.465000 18.313999 1.447000 # 3
251 3 29.465000 18.313999 4.713000 # 3
252 3 29.465000 18.313999 7.980000 # 3
253 3 8.634000 17.756001 1.433000 # 3
254 3 8.634000 17.756001 4.700000 # 3
255 3 8.634000 17.756001 7.966000 # 3
256 3 28.125000 6.503000 1.433000 # 3
257 3 28.125000 6.503000 4.700000 # 3
258 3 28.125000 6.503000 7.966000 # 3
259 3 10.832000 16.016001 1.434000 # 3
260 3 10.832000 16.016001 4.701000 # 3
261 3 10.832000 16.016001 7.967000 # 3
262 3 30.323000 4.763000 1.434000 # 3
263 3 30.323000 4.763000 4.701000 # 3
264 3 30.323000 4.763000 7.967000 # 3
265 3 19.278999 21.121000 1.433000 # 3
266 3 19.278999 21.121000 4.700000 # 3
267 3 19.278999 21.121000 7.966000 # 3
268 3 38.769001 9.868000 1.433000 # 3
269 3 38.769001 9.868000 4.700000 # 3
270 3 38.769001 9.868000 7.966000 # 3
271 3 0.194000 12.642000 1.434000 # 3
272 3 0.194000 12.642000 4.700000 # 3
273 3 0.194000 12.642000 7.967000 # 3
274 3 19.684999 1.389000 1.434000 # 3
275 3 19.684999 1.389000 4.700000 # 3
276 3 19.684999 1.389000 7.967000 # 3
277 3 11.052000 6.157000 1.456000 # 3
278 3 11.052000 6.157000 4.722000 # 3
279 3 11.052000 6.157000 7.989000 # 3
280 3 30.542000 17.410000 1.456000 # 3
281 3 30.542000 17.410000 4.722000 # 3
282 3 30.542000 17.410000 7.989000 # 3
283 3 8.447000 5.121000 1.411000 # 3
284 3 8.447000 5.121000 4.677000 # 3
285 3 8.447000 5.121000 7.944000 # 3
286 3 27.938002 16.374001 1.411000 # 3
287 3 27.938002 16.374001 4.677000 # 3
288 3 27.938002 16.374001 7.944000 # 3
289 4 9.584000 20.400000 1.430000 # 4
290 4 9.584000 20.400000 4.697000 # 4
291 4 9.584000 20.400000 7.963000 # 4
292 4 29.075001 9.147000 1.430000 # 4
293 4 29.075001 9.147000 4.697000 # 4
294 4 29.075001 9.147000 7.963000 # 4
295 4 9.881000 13.372000 1.437000 # 4
296 4 9.881000 13.372000 4.703000 # 4
297 4 9.881000 13.372000 7.969999 # 4
298 4 29.372002 2.119000 1.437000 # 4
299 4 29.372002 2.119000 4.703000 # 4
300 4 29.372002 2.119000 7.969999 # 4
301 4 16.509001 20.622999 1.434000 # 4
302 4 16.509001 20.622999 4.700000 # 4
303 4 16.509001 20.622999 7.967000 # 4
304 4 36.000000 9.370000 1.434000 # 4
305 4 36.000000 9.370000 4.700000 # 4
306 4 36.000000 9.370000 7.967000 # 4
307 4 2.963000 13.141000 1.434000 # 4
308 4 2.963000 13.141000 4.700000 # 4
309 4 2.963000 13.141000 7.967000 # 4
310 4 22.454000 1.888000 1.434000 # 4
311 4 22.454000 1.888000 4.700000 # 4
312 4 22.454000 1.888000 7.967000 # 4
313 4 12.867000 4.005000 1.460000 # 4
314 4 12.867000 4.005000 4.727000 # 4
315 4 12.867000 4.005000 7.993000 # 4
316 4 32.358002 15.258000 1.460000 # 4
317 4 32.358002 15.258000 4.727000 # 4
318 4 32.358002 15.258000 7.993000 # 4
319 4 6.628000 7.261000 1.406000 # 4
320 4 6.628000 7.261000 4.671999 # 4
321 4 6.628000 7.261000 7.939000 # 4
322 4 26.118999 18.514000 1.406000 # 4
323 4 26.118999 18.514000 4.671999 # 4
324 4 26.118999 18.514000 7.939000 # 4
325 4 7.420000 4.741000 1.393000 # 4
326 4 7.420000 4.741000 4.659000 # 4
327 4 7.420000 4.741000 7.926001 # 4
328 4 26.910999 15.994001 1.393000 # 4
329 4 26.910999 15.994001 4.659000 # 4
330 4 26.910999 15.994001 7.926001 # 4
331 4 12.079000 6.536000 1.473000 # 4
332 4 12.079000 6.536000 4.740000 # 4
333 4 12.079000 6.536000 8.006000 # 4
334 4 31.570000 17.789000 1.473000 # 4
335 4 31.570000 17.789000 4.740000 # 4
336 4 31.570000 17.789000 8.006000 # 4
337 4 0.379000 13.721000 1.434000 # 4
338 4 0.379000 13.721000 4.700000 # 4
339 4 0.379000 13.721000 7.967000 # 4
340 4 19.870001 2.468000 1.434000 # 4
341 4 19.870001 2.468000 4.700000 # 4
342 4 19.870001 2.468000 7.967000 # 4
343 4 11.672000 15.314001 1.434000 # 4
344 4 11.672000 15.314001 4.701000 # 4
345 4 11.672000 15.314001 7.967000 # 4
346 4 31.163002 4.061000 1.434000 # 4
347 4 31.163002 4.061000 4.701000 # 4
348 4 31.163002 4.061000 7.967000 # 4
349 4 7.793000 18.457001 1.433000 # 4
350 4 7.793000 18.457001 4.699000 # 4
351 4 7.793000 18.457001 7.966000 # 4
352 4 27.284000 7.204000 1.433000 # 4
353 4 27.284000 7.204000 4.699000 # 4
354 4 27.284000 7.204000 7.966000 # 4
355 4 19.094000 20.042000 1.433000 # 4
356 4 19.094000 20.042000 4.700000 # 4
357 4 19.094000 20.042000 7.966000 # 4
358 4 38.584999 8.789000 1.433000 # 4
359 4 38.584999 8.789000 4.700000 # 4
360 4 38.584999 8.789000 7.966000 # 4
361 5 9.865001 9.071000 1.458000 # 5
362 5 9.865001 9.071000 4.724000 # 5
363 5 9.865001 9.071000 7.991000 # 5
364 5 29.355000 20.323999 1.458000 # 5
365 5 29.355000 20.323999 4.724000 # 5
366 5 29.355000 20.323999 7.991000 # 5
367 5 16.573999 1.825000 1.437000 # 5
368 5 16.573999 1.825000 4.704000 # 5
369 5 16.573999 1.825000 7.969999 # 5
370 5 36.064999 13.078000 1.437000 # 5
371 5 36.064999 13.078000 4.704000 # 5
372 5 36.064999 13.078000 7.969999 # 5
373 5 12.766000 18.495001 1.435000 # 5
374 5 12.766000 18.495001 4.702000 # 5
375 5 12.766000 18.495001 7.968000 # 5
376 5 32.257000 7.242000 1.435000 # 5
377 5 32.257000 7.242000 4.702000 # 5
378 5 32.257000 7.242000 7.968000 # 5
379 5 2.900000 9.434000 1.430000 # 5
380 5 2.900000 9.434000 4.696000 # 5
381 5 2.900000 9.434000 7.963000 # 5
382 5 22.391001 20.687000 1.430000 # 5
383 5 22.391001 20.687000 4.696000 # 5
384 5 22.391001 20.687000 7.963000 # 5
385 5 9.622000 2.210000 1.410000 # 5
386 5 9.622000 2.210000 4.676000 # 5
387 5 9.622000 2.210000 7.942999 # 5
388 5 29.113001 13.463000 1.410000 # 5
389 5 29.113001 13.463000 4.676000 # 5
390 5 29.113001 13.463000 7.942999 # 5
391 5 6.700000 15.277000 1.433000 # 5
392 5 6.700000 15.277000 4.700000 # 5
393 5 6.700000 15.277000 7.966000 # 5
394 5 26.191000 4.024000 1.433000 # 5
395 5 26.191000 4.024000 4.700000 # 5
396 5 26.191000 4.024000 7.966000 # 5
397 4 15.426203 12.569455 3.754672 # 4
398 4 16.129255 12.502707 3.912082 # 4
399 4 23.687582 10.791039 6.518937 # 4
400 4 23.724092 10.503639 7.206524 # 4
401 4 18.470133 12.112950 10.800214 # 4
402 4 18.619041 11.453342 10.470659 # 4
403 4 16.892345 12.510145 5.593400 # 4
404 4 16.512791 12.623402 6.193561 # 4
405 4 19.502569 16.956816 9.692209 # 4
406 4 20.163429 17.197401 9.548565 # 4
407 4 18.303007 11.124885 4.762062 # 4
408 4 18.944143 10.931153 4.447454 # 4
409 4 20.635658 14.247808 5.179948 # 4
410 4 20.352968 14.021969 5.785742 # 4
411 4 14.963784 10.196959 2.882877 # 4
412 4 14.494227 10.587405 2.428692 # 4
413 4 22.376219 8.865054 5.568231 # 4
414 4 21.966328 9.473502 5.737277 # 4
415 4 20.077566 14.836873 11.902763 # 4
416 4 19.676643 15.321003 11.505388 # 4
417 4 16.115696 10.398922 8.137256 # 4
418 4 16.552851 9.931619 7.734850 # 4
419 4 13.592779 10.731525 5.873310 # 4
420 4 13.219954 10.270354 5.485673 # 4
421 4 16.183266 18.661161 6.889401 # 4
422 4 16.041067 18.059942 6.579615 # 4
423 4 20.812944 11.596692 2.567835 # 4
424 4 21.517063 11.637618 2.497882 # 4
425 4 16.868408 15.582324 6.175777 # 4
426 4 17.478745 15.840588 5.967772 # 4
427 4 14.333676 12.879840 5.409444 # 4
428 4 14.547495 13.433177 4.995442 # 4
429 4 12.114299 14.280513 7.013193 # 4
430 4 12.814196 14.116140 6.818558 # 4
431 4 18.255941 14.311031 8.103824 # 4
432 4 17.838766 13.801160 7.797120 # 4
433 4 19.118382 10.585943 8.611473 # 4
434 4 18.542828 10.426324 8.162792 # 4
435 4 21.612463 9.356592 8.205481 # 4
436 4 21.608843 10.049078 8.133238 # 4
437 1 37.498314 3.480671 0.129143 # 1
438 4 37.688339 2.766317 29.445698 # 4
439 4 38.207359 3.137872 0.662327 # 4
440 1 34.521328 13.522066 28.097301 # 1
441 4 35.427975 13.872576 28.301414 # 4
442 4 34.702396 12.604424 27.887407 # 4
443 1 15.569770 4.852770 25.159525 # 1
444 4 16.335133 5.224590 25.597036 # 4
445 4 15.209651 4.060091 25.560816 # 4
446 1 31.287699 7.630663 15.029754 # 1
447 4 31.318140 8.565859 14.528320 # 4
448 4 30.863939 7.729801 15.905607 # 4
449 1 7.743027 3.651914 21.539948 # 1
450 4 7.855528 4.456107 22.087225 # 4
451 4 6.791747 3.691154 21.314320 # 4
452 1 14.885465 16.902700 8.616020 # 1
453 4 14.731737 16.043266 8.193458 # 4
454 4 14.270129 16.829531 9.389838 # 4
455 1 34.450298 0.695491 15.529352 # 1
456 4 34.596622 22.334927 15.063449 # 4
457 4 34.653282 0.584852 16.503321 # 4
458 1 38.838150 2.682360 2.371591 # 1
459 4 37.949909 3.062515 2.368523 # 4
460 4 38.813396 2.037798 1.686956 # 4
461 1 18.642275 10.329523 22.797594 # 1
462 4 18.513617 10.517869 23.725792 # 4
463 4 19.058849 11.128755 22.361374 # 4
464 1 3.437983 5.033759 2.005321 # 1
465 4 3.567098 4.754966 1.101007 # 4
466 4 4.068301 5.775596 2.288620 # 4
467 1 3.491643 13.128948 11.503853 # 1
468 4 4.001634 12.284633 11.675265 # 4
469 4 2.727665 12.891431 12.078155 # 4
470 1 13.888579 7.424921 2.809850 # 1
471 4 14.361259 7.930052 2.018183 # 4
472 4 14.442769 6.700445 3.221501 # 4
473 1 2.162672 16.289743 3.646502 # 1
474 4 2.339816 16.499002 4.573386 # 4
475 4 1.208654 16.306612 3.553969 # 4
476 1 31.710251 2.714973 15.629706 # 1
477 4 30.943010 3.359875 15.484229 # 4
478 4 32.164169 2.690881 14.770079 # 4
479 1 31.070263 11.853246 15.666760 # 1
480 4 31.999683 11.601486 15.404403 # 4
481 4 30.727654 11.187330 16.357740 # 4
482 1 18.246458 6.707727 20.748806 # 1
483 4 18.903616 6.005543 20.828262 # 4
484 4 17.571768 6.144790 21.136780 # 4
485 1 28.332300 2.758065 25.898081 # 1
486 4 27.499088 2.644260 26.400763 # 4
487 4 28.431936 1.836320 25.546291 # 4
488 1 17.062645 4.307904 8.462309 # 1
489 4 17.470705 4.096747 9.374661 # 4
490 4 17.858591 4.069378 7.926971 # 4
491 1 32.020279 20.845417 2.210229 # 1
492 4 32.977161 20.978394 2.140256 # 4
493 4 31.832554 19.933718 2.009296 # 4
494 1 23.093405 4.349270 4.180583 # 1
495 4 23.532991 3.948675 4.900082 # 4
496 4 23.286337 4.010477 3.315278 # 4
497 1 1.253840 9.887383 20.892014 # 1
498 4 1.676168 9.757027 21.803265 # 4
499 4 1.647018 9.340917 20.181015 # 4
500 1 15.050945 11.490113 19.358221 # 1
501 4 14.766707 10.708446 19.808720 # 4
502 4 14.326021 11.949045 18.942219 # 4
503 1 5.027092 10.768092 25.710197 # 1
504 4 5.052356 9.811928 25.753889 # 4
505 4 4.303840 11.024693 26.284332 # 4
506 1 21.568531 7.674319 19.395277 # 1
507 4 22.230453 8.221624 18.869654 # 4
508 4 21.204071 7.951440 20.300674 # 4
509 1 30.689880 13.461743 11.809817 # 1
510 4 29.816755 13.117198 11.963941 # 4
511 4 30.471857 14.286854 11.316297 # 4
512 1 6.961471 1.591478 1.129857 # 1
513 4 7.120073 2.333229 0.544885 # 4
514 4 6.642638 0.798688 0.633674 # 4
515 1 27.457180 20.922190 15.684032 # 1
516 4 27.104773 21.624126 16.252497 # 4
517 4 26.697960 20.307285 15.663188 # 4
518 1 33.817387 2.977922 17.457014 # 1
519 4 34.514168 3.551370 17.183287 # 4
520 4 33.207409 2.636727 16.792044 # 4
521 1 13.116674 17.075653 11.934252 # 1
522 4 13.098121 17.778458 11.262666 # 4
523 4 13.648638 17.467899 12.670138 # 4
524 1 38.726234 13.838091 28.264174 # 1
525 4 38.671074 13.068413 27.686621 # 4
526 4 38.290680 13.734644 29.167496 # 4
527 1 2.853094 18.875240 22.179176 # 1
528 4 3.581130 18.874048 21.506458 # 4
529 4 2.876528 17.999739 22.682478 # 4
530 1 27.086269 7.982783 26.224665 # 1
531 4 26.799225 7.126911 25.973995 # 4
532 4 26.310974 8.581505 25.963549 # 4
533 1 2.147647 4.950008 29.819950 # 1
534 4 2.031275 4.519523 28.958372 # 4
535 4 1.917496 5.895596 29.639254 # 4
536 1 37.421726 10.114131 27.063324 # 1
537 4 36.689960 9.495028 27.357996 # 4
538 4 38.160553 9.515193 27.254103 # 4
539 1 29.526730 5.370345 27.088438 # 1
540 4 29.391960 6.383758 27.207426 # 4
541 4 28.868952 5.199976 26.443592 # 4
542 1 36.503632 16.592030 20.732716 # 1
543 4 35.864460 15.854978 20.731377 # 4
544 4 36.357655 16.896561 19.790386 # 4
545 1 3.114146 14.653905 27.508333 # 1
546 4 2.441735 14.222754 28.062614 # 4
547 4 2.684691 14.683926 26.611662 # 4
548 1 31.563486 1.260921 2.844125 # 1
549 4 30.733770 0.999580 2.399686 # 4
550 4 32.071556 0.493508 3.184916 # 4
551 1 17.846729 3.739741 27.712212 # 1
552 4 18.105867 3.455018 26.808901 # 4
553 4 16.850117 3.783574 27.657949 # 4
554 1 32.235275 3.672102 12.667803 # 1
555 4 31.413044 3.205294 12.793033 # 4
556 4 32.013496 4.598271 12.803773 # 4
557 1 19.517027 9.895230 12.358063 # 1
558 4 19.856110 9.077532 11.983354 # 4
559 4 18.720655 10.060253 11.780314 # 4
560 1 34.479580 20.619574 1.374296 # 1
561 4 35.333130 20.953201 1.835500 # 4
562 4 34.484543 21.317680 0.621850 # 4
563 1 14.839502 10.115927 26.186720 # 1
564 4 15.690098 9.718271 25.922304 # 4
565 4 14.505743 10.663086 25.498686 # 4
566 1 8.614058 1.771174 18.220058 # 1
567 4 8.801497 1.220775 17.426315 # 4
568 4 7.913026 2.339998 17.930012 # 4
569 1 19.034554 21.881987 24.775902 # 1
570 4 18.138885 22.002106 25.094606 # 4
571 4 19.501484 0.169193 25.211233 # 4
572 1 8.924916 12.519373 11.368876 # 1
573 4 8.609591 13.354114 11.769240 # 4
574 4 8.166640 12.565424 10.718119 # 4
575 1 4.025576 2.987642 24.828632 # 1
576 4 3.731718 3.520081 25.605349 # 4
577 4 3.331219 2.698151 24.169323 # 4
578 1 23.022165 8.363582 26.080967 # 1
579 4 22.273491 8.266040 26.724874 # 4
580 4 23.380033 7.492366 25.915365 # 4
581 1 23.422623 1.608196 24.305912 # 1
582 4 23.704334 1.207597 23.436813 # 4
583 4 22.517376 1.816485 24.040047 # 4
584 1 38.590466 11.526189 13.946321 # 1
585 4 37.682213 11.157290 13.742740 # 4
586 4 38.791004 11.401643 14.893848 # 4
587 1 7.281954 18.261478 25.138853 # 1
588 4 8.130885 17.852652 25.356363 # 4
589 4 6.811635 17.664417 24.566957 # 4
590 1 27.568432 22.285456 18.336536 # 1
591 4 27.758312 22.319551 19.298855 # 4
592 4 27.165653 0.649145 18.376358 # 4
593 1 27.366320 8.542616 18.611271 # 1
594 4 27.289143 7.864329 19.335184 # 4
595 4 27.414452 9.342009 19.137442 # 4
596 1 26.922722 11.624255 0.983011 # 1
597 4 26.137314 11.771692 0.385265 # 4
598 4 27.411610 10.910778 0.543752 # 4
599 1 14.199697 2.961066 12.873802 # 1
600 4 13.424433 2.425092 13.247286 # 4
601 4 14.837985 3.024999 13.547118 # 4
602 1 38.632587 19.508970 20.159092 # 1
603 4 0.507892 19.160620 19.897470 # 4
604 4 38.138386 19.390614 19.315783 # 4
605 1 11.168290 0.915881 24.196924 # 1
606 4 11.600679 0.046969 24.075182 # 4
607 4 10.242797 0.927427 23.820963 # 4
608 1 27.991962 9.896788 9.898904 # 1
609 4 28.203156 10.231783 8.996932 # 4
610 4 27.470566 10.577975 10.405705 # 4
611 1 11.610325 14.812245 10.907641 # 1
612 4 12.057767 15.621717 11.283143 # 4
613 4 11.158460 15.114646 10.114749 # 4
614 1 33.762962 2.246414 27.607800 # 1
615 4 33.803455 2.912881 26.934351 # 4
616 4 32.891216 1.919854 27.824408 # 4
617 1 36.080818 9.822437 17.540468 # 1
618 4 37.027466 9.693477 17.330967 # 4
619 4 35.750309 9.216355 18.205360 # 4
620 1 3.548985 4.310402 14.720660 # 1
621 4 2.879072 5.032429 14.696682 # 4
622 4 2.818314 3.650965 14.685061 # 4
623 1 1.528501 10.257939 11.260227 # 1
624 4 1.208604 11.027591 10.777822 # 4
625 4 2.200142 9.923759 10.578849 # 4
626 1 19.720940 18.023390 12.884926 # 1
627 4 20.224344 18.598492 13.496100 # 4
628 4 20.081842 18.230436 12.035394 # 4
629 1 38.864342 3.924766 8.966698 # 1
630 4 0.459707 3.163812 8.741909 # 4
631 4 37.920383 3.599609 8.992603 # 4
632 1 20.034731 6.706532 13.781235 # 1
633 4 19.313421 7.071967 13.307978 # 4
634 4 19.932190 7.080445 14.648452 # 4
635 1 8.606660 0.290518 24.059637 # 1
636 4 7.908843 0.732680 23.531967 # 4
637 4 8.577096 21.889009 23.631931 # 4
638 1 23.516870 19.307844 12.723600 # 1
639 4 23.731848 18.465555 13.292816 # 4
640 4 24.293890 19.439846 12.149873 # 4
641 1 4.750158 3.032327 20.632933 # 1
642 4 4.612777 2.382034 21.361021 # 4
643 4 3.810191 3.329245 20.378389 # 4
644 1 10.307313 18.338758 25.512690 # 1
645 4 10.263783 18.035730 26.477991 # 4
646 4 10.217889 19.292408 25.668512 # 4
647 1 14.537705 8.576962 14.454306 # 1
648 4 13.878808 8.463954 15.195125 # 4
649 4 15.309859 8.936082 14.911154 # 4
650 1 27.481022 6.686104 20.986942 # 1
651 4 26.684887 6.211189 20.811674 # 4
652 4 28.335726 6.380020 20.546341 # 4
653 1 16.663067 18.003866 29.785683 # 1
654 4 16.712793 18.878986 29.256245 # 4
655 4 16.799629 17.282862 29.107616 # 4
656 1 13.460231 20.868216 16.903387 # 1
657 4 14.373055 20.670023 16.667181 # 4
658 4 13.063245 20.150351 16.349829 # 4
659 1 9.798760 19.850338 22.814402 # 1
660 4 10.247579 20.651613 23.175972 # 4
661 4 9.522056 19.375252 23.640774 # 4
662 1 36.940578 15.145251 8.548127 # 1
663 4 36.837215 15.059733 9.481499 # 4
664 4 36.156090 15.553640 8.169114 # 4
665 1 34.438778 22.377157 6.825721 # 1
666 4 33.920677 0.619407 6.451485 # 4
667 4 33.796719 21.662010 6.810894 # 4
668 1 33.650532 5.696767 21.361841 # 1
669 4 32.775051 5.476520 21.111858 # 4
670 4 33.866253 6.469918 20.762487 # 4
671 1 25.383629 17.489622 23.710846 # 1
672 4 26.202883 17.781330 23.297529 # 4
673 4 24.726677 18.222532 23.986671 # 4
674 1 22.797804 12.613873 7.907481 # 1
675 4 23.548347 13.222987 7.990263 # 4
676 4 22.162170 13.204443 8.389400 # 4
677 1 13.392188 13.344337 17.940487 # 1
678 4 14.021184 13.311341 17.242004 # 4
679 4 12.499213 13.265089 17.535357 # 4
680 1 12.878243 20.203035 20.020172 # 1
681 4 12.821018 19.739796 19.139299 # 4
682 4 12.264826 19.647812 20.533979 # 4
683 1 37.017372 14.323568 23.825224 # 1
684 4 37.428215 14.707350 24.623688 # 4
685 4 37.221870 13.367993 23.816042 # 4
686 1 17.687485 9.096501 18.651800 # 1
687 4 18.456095 9.643589 18.475765 # 4
688 4 17.721304 8.382758 19.410858 # 4
689 1 2.308509 18.743507 15.471120 # 1
690 4 2.644270 19.197140 14.682482 # 4
691 4 2.619860 19.305685 16.219223 # 4
692 1 18.830576 8.282827 6.038793 # 1
693 4 19.275618 8.430550 6.878845 # 4
694 4 19.422363 8.778006 5.455778 # 4
695 1 27.238377 12.376460 4.040870 # 1
696 4 27.878429 11.756776 4.542364 # 4
697 4 27.550579 12.328473 3.073379 # 4
698 1 28.274845 21.495512 11.005657 # 1
699 4 29.135159 21.886759 11.242214 # 4
700 4 28.199793 20.985823 10.136339 # 4
701 1 31.462534 1.419326 23.516312 # 1
702 4 32.242329 1.794065 23.959000 # 4
703 4 31.918779 0.652627 23.052412 # 4
704 1 23.240604 17.287891 11.062528 # 1
705 4 23.964983 17.802429 10.661018 # 4
706 4 22.757427 17.922905 11.657788 # 4
707 1 16.141520 2.608144 22.774048 # 1
708 4 16.559250 2.515766 21.930574 # 4
709 4 16.128912 1.719000 23.198429 # 4
710 1 25.966833 21.013174 13.377244 # 1
711 4 26.116114 21.954409 13.684374 # 4
712 4 26.814226 20.887285 12.844900 # 4
713 1 32.349327 14.631594 13.772231 # 1
714 4 32.655624 15.532113 14.090765 # 4
715 4 31.418322 14.673596 13.503589 # 4
716 1 6.260819 1.800156 14.328514 # 1
717 4 6.022748 2.638319 13.959351 # 4
718 4 6.583670 1.309550 13.527652 # 4
719 1 13.026302 6.005085 22.449652 # 1
720 4 12.057206 6.020897 22.553158 # 4
721 4 13.023977 5.123602 22.888796 # 4
722 1 18.548840 12.017079 28.807598 # 1
723 4 17.644478 11.942830 28.514944 # 4
724 4 18.401159 12.688642 29.514545 # 4
725 1 14.800048 8.506854 0.135308 # 1
726 4 14.983281 9.530538 0.063937 # 4
727 4 13.847316 8.454838 29.825075 # 4
728 1 22.241987 17.595215 19.119505 # 1
729 4 22.803619 16.779259 19.089554 # 4
730 4 21.637915 17.397133 19.911240 # 4
731 1 32.908588 19.730194 13.807337 # 1
732 4 33.421257 19.015026 14.307772 # 4
733 4 32.700172 20.384502 14.496990 # 4
734 1 5.083487 5.509559 3.777623 # 1
735 4 4.789703 4.718763 3.285720 # 4
736 4 4.649843 5.745717 4.604333 # 4
737 1 34.968811 1.747860 12.874262 # 1
738 4 34.213772 1.853244 12.224465 # 4
739 4 34.549225 1.384330 13.678962 # 4
740 1 14.541074 17.140532 0.667298 # 1
741 4 14.254356 16.903584 29.798168 # 4
742 4 15.292109 17.761549 0.612574 # 4
743 1 0.086404 6.022878 14.388337 # 1
744 4 38.877689 5.960784 13.358935 # 4
745 4 0.561443 6.911554 14.352079 # 4
746 1 24.689857 20.382250 20.999010 # 1