LAMMPS data file. CGCMM style. atom_style atomic generated by VMD/TopoTools v1.2 on Sat Jun 13 15:50:40 +0800 2026
 6046 atoms
 0 bonds
 0 angles
 0 dihedrals
 0 impropers
 5 atom types
 0 bond types
 0 angle types
 0 dihedral types
 0 improper types
 0.000000 45.0120  xlo xhi
 0.000000 38.98150  ylo yhi
 0.000000 40  zlo zhi

# Pair Coeffs
#
# 1  1
# 2  2
# 3  3
# 4  4
# 5  5

 Masses

 1 15.999400 # 1
 2 14.006700 # 2
 3 12.010700 # 3
 4 1.007940 # 4
 5 195.078003 # 5

 Atoms

1 1 28.181999 12.322000 1.435000 # 1
2 1 5.676000 12.322000 1.435000 # 1
3 1 28.181999 12.322000 4.702000 # 1
4 1 5.676000 12.322000 4.702000 # 1
5 1 28.181999 12.322000 7.968000 # 1
6 1 5.676000 12.322000 7.968000 # 1
7 1 16.929001 31.813000 1.435000 # 1
8 1 39.435001 31.813000 1.435000 # 1
9 1 16.929001 31.813000 4.702000 # 1
10 1 39.435001 31.813000 4.702000 # 1
11 1 16.929001 31.813000 7.968000 # 1
12 1 39.435001 31.813000 7.968000 # 1
13 1 21.791000 3.247000 1.433000 # 1
14 1 44.297001 3.247000 1.433000 # 1
15 1 21.791000 3.247000 4.699000 # 1
16 1 44.297001 3.247000 4.699000 # 1
17 1 21.791000 3.247000 7.966000 # 1
18 1 44.297001 3.247000 7.966000 # 1
19 1 10.538000 22.738001 1.433000 # 1
20 1 33.043999 22.738001 1.433000 # 1
21 1 10.538000 22.738001 4.699000 # 1
22 1 33.043999 22.738001 4.699000 # 1
23 1 10.538000 22.738001 7.966000 # 1
24 1 33.043999 22.738001 7.966000 # 1
25 1 10.440000 12.501000 1.440000 # 1
26 1 32.945999 12.501000 1.440000 # 1
27 1 10.440000 12.501000 4.707000 # 1
28 1 32.945999 12.501000 4.707000 # 1
29 1 10.440000 12.501000 7.973000 # 1
30 1 32.945999 12.501000 7.973000 # 1
31 1 21.693001 31.992001 1.440000 # 1
32 1 44.199001 31.992001 1.440000 # 1
33 1 21.693001 31.992001 4.707000 # 1
34 1 44.199001 31.992001 4.707000 # 1
35 1 21.693001 31.992001 7.973000 # 1
36 1 44.199001 31.992001 7.973000 # 1
37 1 17.025999 3.079000 1.426000 # 1
38 1 39.532001 3.079000 1.426000 # 1
39 1 17.025999 3.079000 4.693000 # 1
40 1 39.532001 3.079000 4.693000 # 1
41 1 17.025999 3.079000 7.959000 # 1
42 1 39.532001 3.079000 7.959000 # 1
43 1 28.278999 22.570000 1.426000 # 1
44 1 5.773000 22.570000 1.426000 # 1
45 1 28.278999 22.570000 4.693000 # 1
46 1 5.773000 22.570000 4.693000 # 1
47 1 28.278999 22.570000 7.959000 # 1
48 1 5.773000 22.570000 7.959000 # 1
49 1 8.215000 8.286000 1.416000 # 1
50 1 30.721001 8.286000 1.416000 # 1
51 1 8.215000 8.286000 4.683000 # 1
52 1 30.721001 8.286000 4.683000 # 1
53 1 8.215000 8.286000 7.949000 # 1
54 1 30.721001 8.286000 7.949000 # 1
55 1 19.468000 27.777000 1.416000 # 1
56 1 41.973999 27.777000 1.416000 # 1
57 1 19.468000 27.777000 4.683000 # 1
58 1 41.973999 27.777000 4.683000 # 1
59 1 19.468000 27.777000 7.949000 # 1
60 1 41.973999 27.777000 7.949000 # 1
61 1 19.266001 7.289000 1.451000 # 1
62 1 41.771999 7.289000 1.451000 # 1
63 1 19.266001 7.289000 4.717000 # 1
64 1 41.771999 7.289000 4.717000 # 1
65 1 19.266001 7.289000 7.984000 # 1
66 1 41.771999 7.289000 7.984000 # 1
67 1 30.518999 26.780001 1.451000 # 1
68 1 8.013000 26.780001 1.451000 # 1
69 1 30.518999 26.780001 4.717000 # 1
70 1 8.013000 26.780001 4.717000 # 1
71 1 30.518999 26.780001 7.984000 # 1
72 1 8.013000 26.780001 7.984000 # 1
73 2 27.750999 8.331000 1.431000 # 2
74 2 5.245000 8.331000 1.431000 # 2
75 2 27.750999 8.331000 4.698000 # 2
76 2 5.245000 8.331000 4.698000 # 2
77 2 27.750999 8.331000 7.964000 # 2
78 2 5.245000 8.331000 7.964000 # 2
79 2 16.497999 27.822001 1.431000 # 2
80 2 39.004002 27.822001 1.431000 # 2
81 2 16.497999 27.822001 4.698000 # 2
82 2 39.004002 27.822001 4.698000 # 2
83 2 16.497999 27.822001 7.964000 # 2
84 2 39.004002 27.822001 7.964000 # 2
85 2 22.226000 7.237000 1.436000 # 2
86 2 44.731998 7.237000 1.436000 # 2
87 2 22.226000 7.237000 4.702000 # 2
88 2 44.731998 7.237000 4.702000 # 2
89 2 22.226000 7.237000 7.969000 # 2
90 2 44.731998 7.237000 7.969000 # 2
91 2 10.973000 26.728001 1.436000 # 2
92 2 33.479000 26.728001 1.436000 # 2
93 2 10.973000 26.728001 4.702000 # 2
94 2 33.479000 26.728001 4.702000 # 2
95 2 10.973000 26.728001 7.969000 # 2
96 2 33.479000 26.728001 7.969000 # 2
97 2 29.702000 14.867000 1.434000 # 2
98 2 7.196000 14.867000 1.434000 # 2
99 2 29.702000 14.867000 4.700000 # 2
100 2 7.196000 14.867000 4.700000 # 2
101 2 29.702000 14.867000 7.967000 # 2
102 2 7.196000 14.867000 7.967000 # 2
103 2 18.448999 34.358002 1.434000 # 2
104 2 40.955002 34.358002 1.434000 # 2
105 2 18.448999 34.358002 4.700000 # 2
106 2 40.955002 34.358002 4.700000 # 2
107 2 18.448999 34.358002 7.967000 # 2
108 2 40.955002 34.358002 7.967000 # 2
109 2 20.266001 0.708000 1.433000 # 2
110 2 42.771999 0.708000 1.433000 # 2
111 2 20.266001 0.708000 4.700000 # 2
112 2 42.771999 0.708000 4.700000 # 2
113 2 20.266001 0.708000 7.966000 # 2
114 2 42.771999 0.708000 7.966000 # 2
115 2 9.013000 20.198000 1.433000 # 2
116 2 31.518999 20.198000 1.433000 # 2
117 2 9.013000 20.198000 4.700000 # 2
118 2 31.518999 20.198000 4.700000 # 2
119 2 9.013000 20.198000 7.966000 # 2
120 2 31.518999 20.198000 7.966000 # 2
121 2 11.886000 9.918000 1.449000 # 2
122 2 34.391998 9.918000 1.449000 # 2
123 2 11.886000 9.918000 4.716000 # 2
124 2 34.391998 9.918000 4.716000 # 2
125 2 11.886000 9.918000 7.982000 # 2
126 2 34.391998 9.918000 7.982000 # 2
127 2 23.139000 29.409000 1.449000 # 2
128 2 0.633000 29.409000 1.449000 # 2
129 2 23.139000 29.409000 4.716000 # 2
130 2 0.633000 29.409000 4.716000 # 2
131 2 23.139000 29.409000 7.982000 # 2
132 2 0.633000 29.409000 7.982000 # 2
133 2 15.591000 5.677000 1.417000 # 2
134 2 38.097000 5.677000 1.417000 # 2
135 2 15.591000 5.677000 4.684000 # 2
136 2 38.097000 5.677000 4.684000 # 2
137 2 15.591000 5.677000 7.950000 # 2
138 2 38.097000 5.677000 7.950000 # 2
139 2 26.844000 25.167999 1.417000 # 2
140 2 4.338000 25.167999 1.417000 # 2
141 2 26.844000 25.167999 4.684000 # 2
142 2 4.338000 25.167999 4.684000 # 2
143 2 26.844000 25.167999 7.950000 # 2
144 2 4.338000 25.167999 7.950000 # 2
145 3 29.339001 11.720000 1.434000 # 3
146 3 6.833000 11.720000 1.434000 # 3
147 3 29.339001 11.720000 4.700000 # 3
148 3 6.833000 11.720000 4.700000 # 3
149 3 29.339001 11.720000 7.967000 # 3
150 3 6.833000 11.720000 7.967000 # 3
151 3 18.086000 31.211000 1.434000 # 3
152 3 40.591999 31.211000 1.434000 # 3
153 3 18.086000 31.211000 4.700000 # 3
154 3 40.591999 31.211000 4.700000 # 3
155 3 18.086000 31.211000 7.967000 # 3
156 3 40.591999 31.211000 7.967000 # 3
157 3 20.635000 3.851000 1.434000 # 3
158 3 43.140999 3.851000 1.434000 # 3
159 3 20.635000 3.851000 4.700000 # 3
160 3 43.140999 3.851000 4.700000 # 3
161 3 20.635000 3.851000 7.967000 # 3
162 3 43.140999 3.851000 7.967000 # 3
163 3 9.382000 23.341000 1.434000 # 3
164 3 31.888000 23.341000 1.434000 # 3
165 3 9.382000 23.341000 4.700000 # 3
166 3 31.888000 23.341000 4.700000 # 3
167 3 9.382000 23.341000 7.967000 # 3
168 3 31.888000 23.341000 7.967000 # 3
169 3 9.340000 11.800000 1.437000 # 3
170 3 31.846001 11.800000 1.437000 # 3
171 3 9.340000 11.800000 4.704000 # 3
172 3 31.846001 11.800000 4.704000 # 3
173 3 9.340000 11.800000 7.970000 # 3
174 3 31.846001 11.800000 7.970000 # 3
175 3 20.593000 31.291000 1.437000 # 3
176 3 43.098999 31.291000 1.437000 # 3
177 3 20.593000 31.291000 4.704000 # 3
178 3 43.098999 31.291000 4.704000 # 3
179 3 20.593000 31.291000 7.970000 # 3
180 3 43.098999 31.291000 7.970000 # 3
181 3 18.127001 3.778000 1.430000 # 3
182 3 40.632999 3.778000 1.430000 # 3
183 3 18.127001 3.778000 4.696000 # 3
184 3 40.632999 3.778000 4.696000 # 3
185 3 18.127001 3.778000 7.963000 # 3
186 3 40.632999 3.778000 7.963000 # 3
187 3 29.379999 23.268999 1.430000 # 3
188 3 6.874000 23.268999 1.430000 # 3
189 3 29.379999 23.268999 4.696000 # 3
190 3 6.874000 23.268999 4.696000 # 3
191 3 29.379999 23.268999 7.963000 # 3
192 3 6.874000 23.268999 7.963000 # 3
193 3 8.156000 9.588000 1.427000 # 3
194 3 30.662001 9.588000 1.427000 # 3
195 3 8.156000 9.588000 4.694000 # 3
196 3 30.662001 9.588000 4.694000 # 3
197 3 8.156000 9.588000 7.960000 # 3
198 3 30.662001 9.588000 7.960000 # 3
199 3 19.409000 29.079000 1.427000 # 3
200 3 41.915001 29.079000 1.427000 # 3
201 3 19.409000 29.079000 4.694000 # 3
202 3 41.915001 29.079000 4.694000 # 3
203 3 19.409000 29.079000 7.960000 # 3
204 3 41.915001 29.079000 7.960000 # 3
205 3 19.319000 5.986000 1.440000 # 3
206 3 41.825001 5.986000 1.440000 # 3
207 3 19.319000 5.986000 4.706000 # 3
208 3 41.825001 5.986000 4.706000 # 3
209 3 19.319000 5.986000 7.973000 # 3
210 3 41.825001 5.986000 7.973000 # 3
211 3 30.572001 25.476999 1.440000 # 3
212 3 8.066000 25.476999 1.440000 # 3
213 3 30.572001 25.476999 4.706000 # 3
214 3 8.066000 25.476999 4.706000 # 3
215 3 30.572001 25.476999 7.973000 # 3
216 3 8.066000 25.476999 7.973000 # 3
217 3 29.388000 10.265000 1.431000 # 3
218 3 6.882000 10.265000 1.431000 # 3
219 3 29.388000 10.265000 4.697000 # 3
220 3 6.882000 10.265000 4.697000 # 3
221 3 29.388000 10.265000 7.964000 # 3
222 3 6.882000 10.265000 7.964000 # 3
223 3 18.135000 29.756001 1.431000 # 3
224 3 40.640999 29.756001 1.431000 # 3
225 3 18.135000 29.756001 4.697000 # 3
226 3 40.640999 29.756001 4.697000 # 3
227 3 18.135000 29.756001 7.964000 # 3
228 3 40.640999 29.756001 7.964000 # 3
229 3 20.590000 5.305000 1.436000 # 3
230 3 43.096001 5.305000 1.436000 # 3
231 3 20.590000 5.305000 4.703000 # 3
232 3 43.096001 5.305000 4.703000 # 3
233 3 20.590000 5.305000 7.969000 # 3
234 3 43.096001 5.305000 7.969000 # 3
235 3 9.337000 24.795000 1.436000 # 3
236 3 31.843000 24.795000 1.436000 # 3
237 3 9.337000 24.795000 4.703000 # 3
238 3 31.843000 24.795000 4.703000 # 3
239 3 9.337000 24.795000 7.969000 # 3
240 3 31.843000 24.795000 7.969000 # 3
241 3 30.562000 12.484000 1.435000 # 3
242 3 8.056000 12.484000 1.435000 # 3
243 3 30.562000 12.484000 4.701000 # 3
244 3 8.056000 12.484000 4.701000 # 3
245 3 30.562000 12.484000 7.968000 # 3
246 3 8.056000 12.484000 7.968000 # 3
247 3 19.309000 31.975000 1.435000 # 3
248 3 41.814999 31.975000 1.435000 # 3
249 3 19.309000 31.975000 4.701000 # 3
250 3 41.814999 31.975000 4.701000 # 3
251 3 19.309000 31.975000 7.968000 # 3
252 3 41.814999 31.975000 7.968000 # 3
253 3 19.410000 3.090000 1.432000 # 3
254 3 41.916000 3.090000 1.432000 # 3
255 3 19.410000 3.090000 4.699000 # 3
256 3 41.916000 3.090000 4.699000 # 3
257 3 19.410000 3.090000 7.965000 # 3
258 3 41.916000 3.090000 7.965000 # 3
259 3 8.157000 22.580999 1.432000 # 3
260 3 30.663000 22.580999 1.432000 # 3
261 3 8.157000 22.580999 4.699000 # 3
262 3 30.663000 22.580999 4.699000 # 3
263 3 8.157000 22.580999 7.965000 # 3
264 3 30.663000 22.580999 7.965000 # 3
265 3 9.390000 10.360000 1.436000 # 3
266 3 31.896000 10.360000 1.436000 # 3
267 3 9.390000 10.360000 4.702000 # 3
268 3 31.896000 10.360000 4.702000 # 3
269 3 9.390000 10.360000 7.969000 # 3
270 3 31.896000 10.360000 7.969000 # 3
271 3 20.643000 29.850000 1.436000 # 3
272 3 43.148998 29.850000 1.436000 # 3
273 3 20.643000 29.850000 4.702000 # 3
274 3 43.148998 29.850000 4.702000 # 3
275 3 20.643000 29.850000 7.969000 # 3
276 3 43.148998 29.850000 7.969000 # 3
277 3 18.082001 5.220000 1.431000 # 3
278 3 40.588001 5.220000 1.431000 # 3
279 3 18.082001 5.220000 4.698000 # 3
280 3 40.588001 5.220000 4.698000 # 3
281 3 18.082001 5.220000 7.964000 # 3
282 3 40.588001 5.220000 7.964000 # 3
283 3 29.334999 24.709999 1.431000 # 3
284 3 6.829000 24.709999 1.431000 # 3
285 3 29.334999 24.709999 4.698000 # 3
286 3 6.829000 24.709999 4.698000 # 3
287 3 29.334999 24.709999 7.964000 # 3
288 3 6.829000 24.709999 7.964000 # 3
289 3 28.101999 9.637000 1.431000 # 3
290 3 5.596000 9.637000 1.431000 # 3
291 3 28.101999 9.637000 4.698000 # 3
292 3 5.596000 9.637000 4.698000 # 3
293 3 28.101999 9.637000 7.964000 # 3
294 3 5.596000 9.637000 7.964000 # 3
295 3 16.849001 29.127001 1.431000 # 3
296 3 39.355000 29.127001 1.431000 # 3
297 3 16.849001 29.127001 4.698000 # 3
298 3 39.355000 29.127001 4.698000 # 3
299 3 16.849001 29.127001 7.964000 # 3
300 3 39.355000 29.127001 7.964000 # 3
301 3 21.875999 5.932000 1.436000 # 3
302 3 44.382000 5.932000 1.436000 # 3
303 3 21.875999 5.932000 4.703000 # 3
304 3 44.382000 5.932000 4.703000 # 3
305 3 21.875999 5.932000 7.969000 # 3
306 3 44.382000 5.932000 7.969000 # 3
307 3 10.623000 25.423000 1.436000 # 3
308 3 33.129002 25.423000 1.436000 # 3
309 3 10.623000 25.423000 4.703000 # 3
310 3 33.129002 25.423000 4.703000 # 3
311 3 10.623000 25.423000 7.969000 # 3
312 3 33.129002 25.423000 7.969000 # 3
313 3 8.153000 13.912000 1.435000 # 3
314 3 30.659000 13.912000 1.435000 # 3
315 3 8.153000 13.912000 4.701000 # 3
316 3 30.659000 13.912000 4.701000 # 3
317 3 8.153000 13.912000 7.968000 # 3
318 3 30.659000 13.912000 7.968000 # 3
319 3 19.406000 33.402000 1.435000 # 3
320 3 41.911999 33.402000 1.435000 # 3
321 3 19.406000 33.402000 4.701000 # 3
322 3 41.911999 33.402000 4.701000 # 3
323 3 19.406000 33.402000 7.968000 # 3
324 3 41.911999 33.402000 7.968000 # 3
325 3 19.309999 1.663000 1.432000 # 3
326 3 41.816002 1.663000 1.432000 # 3
327 3 19.309999 1.663000 4.699000 # 3
328 3 41.816002 1.663000 4.699000 # 3
329 3 19.309999 1.663000 7.965000 # 3
330 3 41.816002 1.663000 7.965000 # 3
331 3 30.563000 21.153000 1.432000 # 3
332 3 8.057000 21.153000 1.432000 # 3
333 3 30.563000 21.153000 4.699000 # 3
334 3 8.057000 21.153000 4.699000 # 3
335 3 30.563000 21.153000 7.965000 # 3
336 3 8.057000 21.153000 7.965000 # 3
337 3 10.581000 9.565000 1.439000 # 3
338 3 33.087002 9.565000 1.439000 # 3
339 3 10.581000 9.565000 4.705000 # 3
340 3 33.087002 9.565000 4.705000 # 3
341 3 10.581000 9.565000 7.972000 # 3
342 3 33.087002 9.565000 7.972000 # 3
343 3 21.834000 29.056000 1.439000 # 3
344 3 44.340000 29.056000 1.439000 # 3
345 3 21.834000 29.056000 4.705000 # 3
346 3 44.340000 29.056000 4.705000 # 3
347 3 21.834000 29.056000 7.972000 # 3
348 3 44.340000 29.056000 7.972000 # 3
349 3 16.898001 6.024000 1.428000 # 3
350 3 39.403999 6.024000 1.428000 # 3
351 3 16.898001 6.024000 4.695000 # 3
352 3 39.403999 6.024000 4.695000 # 3
353 3 16.898001 6.024000 7.961000 # 3
354 3 39.403999 6.024000 7.961000 # 3
355 3 28.150999 25.514999 1.428000 # 3
356 3 5.645000 25.514999 1.428000 # 3
357 3 28.150999 25.514999 4.695000 # 3
358 3 5.645000 25.514999 4.695000 # 3
359 3 28.150999 25.514999 7.961000 # 3
360 3 5.645000 25.514999 7.961000 # 3
361 3 26.362000 8.000000 1.433000 # 3
362 3 3.856000 8.000000 1.433000 # 3
363 3 26.362000 8.000000 4.699000 # 3
364 3 3.856000 8.000000 4.699000 # 3
365 3 26.362000 8.000000 7.966000 # 3
366 3 3.856000 8.000000 7.966000 # 3
367 3 15.109000 27.490999 1.433000 # 3
368 3 37.615002 27.490999 1.433000 # 3
369 3 15.109000 27.490999 4.699000 # 3
370 3 37.615002 27.490999 4.699000 # 3
371 3 15.109000 27.490999 7.966000 # 3
372 3 37.615002 27.490999 7.966000 # 3
373 3 23.614000 7.568000 1.434000 # 3
374 3 1.108000 7.568000 1.434000 # 3
375 3 23.614000 7.568000 4.701000 # 3
376 3 1.108000 7.568000 4.701000 # 3
377 3 23.614000 7.568000 7.967000 # 3
378 3 1.108000 7.568000 7.967000 # 3
379 3 12.361000 27.059000 1.434000 # 3
380 3 34.867001 27.059000 1.434000 # 3
381 3 12.361000 27.059000 4.701000 # 3
382 3 34.867001 27.059000 4.701000 # 3
383 3 12.361000 27.059000 7.967000 # 3
384 3 34.867001 27.059000 7.967000 # 3
385 3 30.108999 16.235001 1.434000 # 3
386 3 7.603000 16.235001 1.434000 # 3
387 3 30.108999 16.235001 4.700000 # 3
388 3 7.603000 16.235001 4.700000 # 3
389 3 30.108999 16.235001 7.967000 # 3
390 3 7.603000 16.235001 7.967000 # 3
391 3 18.856001 35.726002 1.434000 # 3
392 3 41.362000 35.726002 1.434000 # 3
393 3 18.856001 35.726002 4.700000 # 3
394 3 41.362000 35.726002 4.700000 # 3
395 3 18.856001 35.726002 7.967000 # 3
396 3 41.362000 35.726002 7.967000 # 3
397 3 19.858999 38.321999 1.433000 # 3
398 3 42.365002 38.321999 1.433000 # 3
399 3 19.858999 38.321999 4.700000 # 3
400 3 42.365002 38.321999 4.700000 # 3
401 3 19.858999 38.321999 7.966000 # 3
402 3 42.365002 38.321999 7.966000 # 3
403 3 8.606000 18.830999 1.433000 # 3
404 3 31.112000 18.830999 1.433000 # 3
405 3 8.606000 18.830999 4.700000 # 3
406 3 31.112000 18.830999 4.700000 # 3
407 3 8.606000 18.830999 7.966000 # 3
408 3 31.112000 18.830999 7.966000 # 3
409 3 12.869000 8.883000 1.442000 # 3
410 3 35.375000 8.883000 1.442000 # 3
411 3 12.869000 8.883000 4.709000 # 3
412 3 35.375000 8.883000 4.709000 # 3
413 3 12.869000 8.883000 7.975000 # 3
414 3 35.375000 8.883000 7.975000 # 3
415 3 24.122000 28.374001 1.442000 # 3
416 3 1.616000 28.374001 1.442000 # 3
417 3 24.122000 28.374001 4.709000 # 3
418 3 1.616000 28.374001 4.709000 # 3
419 3 24.122000 28.374001 7.975000 # 3
420 3 1.616000 28.374001 7.975000 # 3
421 3 14.614000 6.717000 1.424000 # 3
422 3 37.119999 6.717000 1.424000 # 3
423 3 14.614000 6.717000 4.691000 # 3
424 3 37.119999 6.717000 4.691000 # 3
425 3 14.614000 6.717000 7.957000 # 3
426 3 37.119999 6.717000 7.957000 # 3
427 3 25.867001 26.207001 1.424000 # 3
428 3 3.361000 26.207001 1.424000 # 3
429 3 25.867001 26.207001 4.691000 # 3
430 3 3.361000 26.207001 4.691000 # 3
431 3 25.867001 26.207001 7.957000 # 3
432 3 3.361000 26.207001 7.957000 # 3
433 3 25.502001 9.129000 1.434000 # 3
434 3 2.996000 9.129000 1.434000 # 3
435 3 25.502001 9.129000 4.700000 # 3
436 3 2.996000 9.129000 4.700000 # 3
437 3 25.502001 9.129000 7.967000 # 3
438 3 2.996000 9.129000 7.967000 # 3
439 3 14.249000 28.620001 1.434000 # 3
440 3 36.755001 28.620001 1.434000 # 3
441 3 14.249000 28.620001 4.700000 # 3
442 3 36.755001 28.620001 4.700000 # 3
443 3 14.249000 28.620001 7.967000 # 3
444 3 36.755001 28.620001 7.967000 # 3
445 3 24.474001 6.438000 1.434000 # 3
446 3 1.968000 6.438000 1.434000 # 3
447 3 24.474001 6.438000 4.700000 # 3
448 3 1.968000 6.438000 4.700000 # 3
449 3 24.474001 6.438000 7.967000 # 3
450 3 1.968000 6.438000 7.967000 # 3
451 3 13.221000 25.929001 1.434000 # 3
452 3 35.727001 25.929001 1.434000 # 3
453 3 13.221000 25.929001 4.700000 # 3
454 3 35.727001 25.929001 4.700000 # 3
455 3 13.221000 25.929001 7.967000 # 3
456 3 35.727001 25.929001 7.967000 # 3
457 3 9.011000 16.415001 1.434000 # 3
458 3 31.517000 16.415001 1.434000 # 3
459 3 9.011000 16.415001 4.701000 # 3
460 3 31.517000 16.415001 4.701000 # 3
461 3 9.011000 16.415001 7.967000 # 3
462 3 31.517000 16.415001 7.967000 # 3
463 3 20.264000 35.905998 1.434000 # 3
464 3 42.770000 35.905998 1.434000 # 3
465 3 20.264000 35.905998 4.701000 # 3
466 3 42.770000 35.905998 4.701000 # 3
467 3 20.264000 35.905998 7.967000 # 3
468 3 42.770000 35.905998 7.967000 # 3
469 3 18.451000 38.140999 1.433000 # 3
470 3 40.957001 38.140999 1.433000 # 3
471 3 18.451000 38.140999 4.699000 # 3
472 3 40.957001 38.140999 4.699000 # 3
473 3 18.451000 38.140999 7.966000 # 3
474 3 40.957001 38.140999 7.966000 # 3
475 3 29.704000 18.650999 1.433000 # 3
476 3 7.198000 18.650999 1.433000 # 3
477 3 29.704000 18.650999 4.699000 # 3
478 3 7.198000 18.650999 4.699000 # 3
479 3 29.704000 18.650999 7.966000 # 3
480 3 7.198000 18.650999 7.966000 # 3
481 3 12.320000 7.574000 1.420000 # 3
482 3 34.826000 7.574000 1.420000 # 3
483 3 12.320000 7.574000 4.687000 # 3
484 3 34.826000 7.574000 4.687000 # 3
485 3 12.320000 7.574000 7.953000 # 3
486 3 34.826000 7.574000 7.953000 # 3
487 3 23.573000 27.065001 1.420000 # 3
488 3 1.067000 27.065001 1.420000 # 3
489 3 23.573000 27.065001 4.687000 # 3
490 3 1.067000 27.065001 4.687000 # 3
491 3 23.573000 27.065001 7.953000 # 3
492 3 1.067000 27.065001 7.953000 # 3
493 3 15.164000 8.026000 1.447000 # 3
494 3 37.669998 8.026000 1.447000 # 3
495 3 15.164000 8.026000 4.713000 # 3
496 3 37.669998 8.026000 4.713000 # 3
497 3 15.164000 8.026000 7.980000 # 3
498 3 37.669998 8.026000 7.980000 # 3
499 3 26.417000 27.516001 1.447000 # 3
500 3 3.911000 27.516001 1.447000 # 3
501 3 26.417000 27.516001 4.713000 # 3
502 3 3.911000 27.516001 4.713000 # 3
503 3 26.417000 27.516001 7.980000 # 3
504 3 3.911000 27.516001 7.980000 # 3
505 3 25.858000 6.685000 1.433000 # 3
506 3 3.352000 6.685000 1.433000 # 3
507 3 25.858000 6.685000 4.700000 # 3
508 3 3.352000 6.685000 4.700000 # 3
509 3 25.858000 6.685000 7.966000 # 3
510 3 3.352000 6.685000 7.966000 # 3
511 3 14.605000 26.176001 1.433000 # 3
512 3 37.111000 26.176001 1.433000 # 3
513 3 14.605000 26.176001 4.700000 # 3
514 3 37.111000 26.176001 4.700000 # 3
515 3 14.605000 26.176001 7.966000 # 3
516 3 37.111000 26.176001 7.966000 # 3
517 3 24.118000 8.883000 1.434000 # 3
518 3 1.612000 8.883000 1.434000 # 3
519 3 24.118000 8.883000 4.701000 # 3
520 3 1.612000 8.883000 4.701000 # 3
521 3 24.118000 8.883000 7.967000 # 3
522 3 1.612000 8.883000 7.967000 # 3
523 3 12.865000 28.372999 1.434000 # 3
524 3 35.370998 28.372999 1.434000 # 3
525 3 12.865000 28.372999 4.701000 # 3
526 3 35.370998 28.372999 4.701000 # 3
527 3 12.865000 28.372999 7.967000 # 3
528 3 35.370998 28.372999 7.967000 # 3
529 3 29.224001 17.330000 1.433000 # 3
530 3 6.718000 17.330000 1.433000 # 3
531 3 29.224001 17.330000 4.700000 # 3
532 3 6.718000 17.330000 4.700000 # 3
533 3 29.224001 17.330000 7.966000 # 3
534 3 6.718000 17.330000 7.966000 # 3
535 3 17.971001 36.820000 1.433000 # 3
536 3 40.477001 36.820000 1.433000 # 3
537 3 17.971001 36.820000 4.700000 # 3
538 3 40.477001 36.820000 4.700000 # 3
539 3 17.971001 36.820000 7.966000 # 3
540 3 40.477001 36.820000 7.966000 # 3
541 3 20.743999 37.227001 1.434000 # 3
542 3 43.250000 37.227001 1.434000 # 3
543 3 20.743999 37.227001 4.700000 # 3
544 3 43.250000 37.227001 4.700000 # 3
545 3 20.743999 37.227001 7.967000 # 3
546 3 43.250000 37.227001 7.967000 # 3
547 3 9.491000 17.736000 1.434000 # 3
548 3 31.997000 17.736000 1.434000 # 3
549 3 9.491000 17.736000 4.700000 # 3
550 3 31.997000 17.736000 4.700000 # 3
551 3 9.491000 17.736000 7.967000 # 3
552 3 31.997000 17.736000 7.967000 # 3
553 3 14.260000 9.103000 1.456000 # 3
554 3 36.765999 9.103000 1.456000 # 3
555 3 14.260000 9.103000 4.722000 # 3
556 3 36.765999 9.103000 4.722000 # 3
557 3 14.260000 9.103000 7.989000 # 3
558 3 36.765999 9.103000 7.989000 # 3
559 3 25.513000 28.593000 1.456000 # 3
560 3 3.007000 28.593000 1.456000 # 3
561 3 25.513000 28.593000 4.722000 # 3
562 3 3.007000 28.593000 4.722000 # 3
563 3 25.513000 28.593000 7.989000 # 3
564 3 3.007000 28.593000 7.989000 # 3
565 3 13.224000 6.498000 1.411000 # 3
566 3 35.730000 6.498000 1.411000 # 3
567 3 13.224000 6.498000 4.677000 # 3
568 3 35.730000 6.498000 4.677000 # 3
569 3 13.224000 6.498000 7.944000 # 3
570 3 35.730000 6.498000 7.944000 # 3
571 3 24.476999 25.989000 1.411000 # 3
572 3 1.971000 25.989000 1.411000 # 3
573 3 24.476999 25.989000 4.677000 # 3
574 3 1.971000 25.989000 4.677000 # 3
575 3 24.476999 25.989000 7.944000 # 3
576 3 1.971000 25.989000 7.944000 # 3
577 4 28.502001 7.635000 1.430000 # 4
578 4 5.996000 7.635000 1.430000 # 4
579 4 28.502001 7.635000 4.697000 # 4
580 4 5.996000 7.635000 4.697000 # 4
581 4 28.502001 7.635000 7.963000 # 4
582 4 5.996000 7.635000 7.963000 # 4
583 4 17.249001 27.125999 1.430000 # 4
584 4 39.755001 27.125999 1.430000 # 4
585 4 17.249001 27.125999 4.697000 # 4
586 4 39.755001 27.125999 4.697000 # 4
587 4 17.249001 27.125999 7.963000 # 4
588 4 39.755001 27.125999 7.963000 # 4
589 4 21.474001 7.932000 1.437000 # 4
590 4 43.980000 7.932000 1.437000 # 4
591 4 21.474001 7.932000 4.703000 # 4
592 4 43.980000 7.932000 4.703000 # 4
593 4 21.474001 7.932000 7.970000 # 4
594 4 43.980000 7.932000 7.970000 # 4
595 4 10.221000 27.423000 1.437000 # 4
596 4 32.727001 27.423000 1.437000 # 4
597 4 10.221000 27.423000 4.703000 # 4
598 4 32.727001 27.423000 4.703000 # 4
599 4 10.221000 27.423000 7.970000 # 4
600 4 32.727001 27.423000 7.970000 # 4
601 4 28.725000 14.560000 1.434000 # 4
602 4 6.219000 14.560000 1.434000 # 4
603 4 28.725000 14.560000 4.700000 # 4
604 4 6.219000 14.560000 4.700000 # 4
605 4 28.725000 14.560000 7.967000 # 4
606 4 6.219000 14.560000 7.967000 # 4
607 4 17.472000 34.050999 1.434000 # 4
608 4 39.978001 34.050999 1.434000 # 4
609 4 17.472000 34.050999 4.700000 # 4
610 4 39.978001 34.050999 4.700000 # 4
611 4 17.472000 34.050999 7.967000 # 4
612 4 39.978001 34.050999 7.967000 # 4
613 4 21.243000 1.014000 1.434000 # 4
614 4 43.749001 1.014000 1.434000 # 4
615 4 21.243000 1.014000 4.700000 # 4
616 4 43.749001 1.014000 4.700000 # 4
617 4 21.243000 1.014000 7.967000 # 4
618 4 43.749001 1.014000 7.967000 # 4
619 4 9.990000 20.504999 1.434000 # 4
620 4 32.495998 20.504999 1.434000 # 4
621 4 9.990000 20.504999 4.700000 # 4
622 4 32.495998 20.504999 4.700000 # 4
623 4 9.990000 20.504999 7.967000 # 4
624 4 32.495998 20.504999 7.967000 # 4
625 4 12.107000 10.918000 1.460000 # 4
626 4 34.612999 10.918000 1.460000 # 4
627 4 12.107000 10.918000 4.727000 # 4
628 4 34.612999 10.918000 4.727000 # 4
629 4 12.107000 10.918000 7.993000 # 4
630 4 34.612999 10.918000 7.993000 # 4
631 4 23.360001 30.409000 1.460000 # 4
632 4 0.854000 30.409000 1.460000 # 4
633 4 23.360001 30.409000 4.727000 # 4
634 4 0.854000 30.409000 4.727000 # 4
635 4 23.360001 30.409000 7.993000 # 4
636 4 0.854000 30.409000 7.993000 # 4
637 4 15.363000 4.679000 1.406000 # 4
638 4 37.868999 4.679000 1.406000 # 4
639 4 15.363000 4.679000 4.672000 # 4
640 4 37.868999 4.679000 4.672000 # 4
641 4 15.363000 4.679000 7.939000 # 4
642 4 37.868999 4.679000 7.939000 # 4
643 4 26.615999 24.170000 1.406000 # 4
644 4 4.110000 24.170000 1.406000 # 4
645 4 26.615999 24.170000 4.672000 # 4
646 4 4.110000 24.170000 4.672000 # 4
647 4 26.615999 24.170000 7.939000 # 4
648 4 4.110000 24.170000 7.939000 # 4
649 4 12.843000 5.471000 1.393000 # 4
650 4 35.348999 5.471000 1.393000 # 4
651 4 12.843000 5.471000 4.659000 # 4
652 4 35.348999 5.471000 4.659000 # 4
653 4 12.843000 5.471000 7.926000 # 4
654 4 35.348999 5.471000 7.926000 # 4
655 4 24.096001 24.962000 1.393000 # 4
656 4 1.590000 24.962000 1.393000 # 4
657 4 24.096001 24.962000 4.659000 # 4
658 4 1.590000 24.962000 4.659000 # 4
659 4 24.096001 24.962000 7.926000 # 4
660 4 1.590000 24.962000 7.926000 # 4
661 4 14.638000 10.130000 1.473000 # 4
662 4 37.144001 10.130000 1.473000 # 4
663 4 14.638000 10.130000 4.740000 # 4
664 4 37.144001 10.130000 4.740000 # 4
665 4 14.638000 10.130000 8.006000 # 4
666 4 37.144001 10.130000 8.006000 # 4
667 4 25.891001 29.620001 1.473000 # 4
668 4 3.385000 29.620001 1.473000 # 4
669 4 25.891001 29.620001 4.740000 # 4
670 4 3.385000 29.620001 4.740000 # 4
671 4 25.891001 29.620001 8.006000 # 4
672 4 3.385000 29.620001 8.006000 # 4
673 4 21.823999 37.410999 1.434000 # 4
674 4 44.330002 37.410999 1.434000 # 4
675 4 21.823999 37.410999 4.700000 # 4
676 4 44.330002 37.410999 4.700000 # 4
677 4 21.823999 37.410999 7.967000 # 4
678 4 44.330002 37.410999 7.967000 # 4
679 4 10.571000 17.921000 1.434000 # 4
680 4 33.077000 17.921000 1.434000 # 4
681 4 10.571000 17.921000 4.700000 # 4
682 4 33.077000 17.921000 4.700000 # 4
683 4 10.571000 17.921000 7.967000 # 4
684 4 33.077000 17.921000 7.967000 # 4
685 4 23.416000 9.723000 1.434000 # 4
686 4 0.910000 9.723000 1.434000 # 4
687 4 23.416000 9.723000 4.701000 # 4
688 4 0.910000 9.723000 4.701000 # 4
689 4 23.416000 9.723000 7.967000 # 4
690 4 0.910000 9.723000 7.967000 # 4
691 4 12.163000 29.214001 1.434000 # 4
692 4 34.668999 29.214001 1.434000 # 4
693 4 12.163000 29.214001 4.701000 # 4
694 4 34.668999 29.214001 4.701000 # 4
695 4 12.163000 29.214001 7.967000 # 4
696 4 34.668999 29.214001 7.967000 # 4
697 4 26.559000 5.844000 1.433000 # 4
698 4 4.053000 5.844000 1.433000 # 4
699 4 26.559000 5.844000 4.699000 # 4
700 4 4.053000 5.844000 4.699000 # 4
701 4 26.559000 5.844000 7.966000 # 4
702 4 4.053000 5.844000 7.966000 # 4
703 4 15.306000 25.334000 1.433000 # 4
704 4 37.812000 25.334000 1.433000 # 4
705 4 15.306000 25.334000 4.699000 # 4
706 4 37.812000 25.334000 4.699000 # 4
707 4 15.306000 25.334000 7.966000 # 4
708 4 37.812000 25.334000 7.966000 # 4
709 4 28.143999 17.145000 1.433000 # 4
710 4 5.638000 17.145000 1.433000 # 4
711 4 28.143999 17.145000 4.700000 # 4
712 4 5.638000 17.145000 4.700000 # 4
713 4 28.143999 17.145000 7.966000 # 4
714 4 5.638000 17.145000 7.966000 # 4
715 4 16.891001 36.636002 1.433000 # 4
716 4 39.396999 36.636002 1.433000 # 4
717 4 16.891001 36.636002 4.700000 # 4
718 4 39.396999 36.636002 4.700000 # 4
719 4 16.891001 36.636002 7.966000 # 4
720 4 39.396999 36.636002 7.966000 # 4
721 5 17.173000 7.916000 1.458000 # 5
722 5 39.679001 7.916000 1.458000 # 5
723 5 17.173000 7.916000 4.724000 # 5
724 5 39.679001 7.916000 4.724000 # 5
725 5 17.173000 7.916000 7.991000 # 5
726 5 39.679001 7.916000 7.991000 # 5
727 5 28.426001 27.406000 1.458000 # 5
728 5 5.920000 27.406000 1.458000 # 5
729 5 28.426001 27.406000 4.724000 # 5
730 5 5.920000 27.406000 4.724000 # 5
731 5 28.426001 27.406000 7.991000 # 5
732 5 5.920000 27.406000 7.991000 # 5
733 5 9.927000 14.625000 1.437000 # 5
734 5 32.432999 14.625000 1.437000 # 5
735 5 9.927000 14.625000 4.704000 # 5
736 5 32.432999 14.625000 4.704000 # 5
737 5 9.927000 14.625000 7.970000 # 5
738 5 32.432999 14.625000 7.970000 # 5
739 5 21.180000 34.115002 1.437000 # 5
740 5 43.686001 34.115002 1.437000 # 5
741 5 21.180000 34.115002 4.704000 # 5
742 5 43.686001 34.115002 4.704000 # 5
743 5 21.180000 34.115002 7.970000 # 5
744 5 43.686001 34.115002 7.970000 # 5
745 5 26.597000 10.817000 1.435000 # 5
746 5 4.091000 10.817000 1.435000 # 5
747 5 26.597000 10.817000 4.702000 # 5
748 5 4.091000 10.817000 4.702000 # 5
749 5 26.597000 10.817000 7.968000 # 5
750 5 4.091000 10.817000 7.968000 # 5